<?xml version="1.0" ?> 
<!-- 
# vtk DataFile Version 3.0
#This file was generated by the deal.II library on 10:30:52 at 2021/9/3
-->
<VTKFile type="UnstructuredGrid" version="0.1" byte_order="LittleEndian">
<UnstructuredGrid>
<Piece NumberOfPoints="1024" NumberOfCells="256" >
  <Points>
    <DataArray type="Float32" NumberOfComponents="3" format="ascii">
0 0 0
0.0625 0 0
0 0.0625 0
0.0747533 0.0483078 0
0.0625 0 0
0.125 0 0
0.0747533 0.0483078 0
0.139459 0.0744371 0
0.125 0 0
0.1875 0 0
0.139459 0.0744371 0
0.175827 0.077173 0
0.1875 0 0
0.25 0 0
0.175827 0.077173 0
0.265542 0.0520115 0
0.25 0 0
0.3125 0 0
0.265542 0.0520115 0
0.323148 0.047067 0
0.3125 0 0
0.375 0 0
0.323148 0.047067 0
0.356378 0.064685 0
0.375 0 0
0.4375 0 0
0.356378 0.064685 0
0.426637 0.0472174 0
0.4375 0 0
0.5 0 0
0.426637 0.0472174 0
0.501775 0.0811658 0
0.5 0 0
0.5625 0 0
0.501775 0.0811658 0
0.575206 0.0762882 0
0.5625 0 0
0.625 0 0
0.575206 0.0762882 0
0.638218 0.0757981 0
0.625 0 0
0.6875 0 0
0.638218 0.0757981 0
0.671848 0.0728239 0
0.6875 0 0
0.75 0 0
0.671848 0.0728239 0
0.763111 0.0759039 0
0.75 0 0
0.8125 0 0
0.763111 0.0759039 0
0.826763 0.0503286 0
0.8125 0 0
0.875 0 0
0.826763 0.0503286 0
0.874081 0.0812275 0
0.875 0 0
0.9375 0 0
0.874081 0.0812275 0
0.953034 0.0519999 0
0.9375 0 0
1 0 0
0.953034 0.0519999 0
1 0.0625 0
0 0.0625 0
0.0747533 0.0483078 0
0 0.125 0
0.0515128 0.109806 0
0.0747533 0.0483078 0
0.139459 0.0744371 0
0.0515128 0.109806 0
0.121289 0.106621 0
0.139459 0.0744371 0
0.175827 0.077173 0
0.121289 0.106621 0
0.205273 0.130975 0
0.175827 0.077173 0
0.265542 0.0520115 0
0.205273 0.130975 0
0.261459 0.139841 0
0.265542 0.0520115 0
0.323148 0.047067 0
0.261459 0.139841 0
0.331249 0.125149 0
0.323148 0.047067 0
0.356378 0.064685 0
0.331249 0.125149 0
0.383686 0.141617 0
0.356378 0.064685 0
0.426637 0.0472174 0
0.383686 0.141617 0
0.419535 0.119633 0
0.426637 0.0472174 0
0.501775 0.0811658 0
0.419535 0.119633 0
0.514462 0.113067 0
0.501775 0.0811658 0
0.575206 0.0762882 0
0.514462 0.113067 0
0.5798 0.13223 0
0.575206 0.0762882 0
0.638218 0.0757981 0
0.5798 0.13223 0
0.641314 0.115758 0
0.638218 0.0757981 0
0.671848 0.0728239 0
0.641314 0.115758 0
0.701205 0.137796 0
0.671848 0.0728239 0
0.763111 0.0759039 0
0.701205 0.137796 0
0.76865 0.123064 0
0.763111 0.0759039 0
0.826763 0.0503286 0
0.76865 0.123064 0
0.797305 0.114015 0
0.826763 0.0503286 0
0.874081 0.0812275 0
0.797305 0.114015 0
0.883069 0.108075 0
0.874081 0.0812275 0
0.953034 0.0519999 0
0.883069 0.108075 0
0.921439 0.115325 0
0.953034 0.0519999 0
1 0.0625 0
0.921439 0.115325 0
1 0.125 0
0 0.125 0
0.0515128 0.109806 0
0 0.1875 0
0.073181 0.20291 0
0.0515128 0.109806 0
0.121289 0.106621 0
0.073181 0.20291 0
0.107542 0.180659 0
0.121289 0.106621 0
0.205273 0.130975 0
0.107542 0.180659 0
0.177865 0.203585 0
0.205273 0.130975 0
0.261459 0.139841 0
0.177865 0.203585 0
0.235167 0.176031 0
0.261459 0.139841 0
0.331249 0.125149 0
0.235167 0.176031 0
0.300651 0.202031 0
0.331249 0.125149 0
0.383686 0.141617 0
0.300651 0.202031 0
0.38829 0.200726 0
0.383686 0.141617 0
0.419535 0.119633 0
0.38829 0.200726 0
0.446148 0.170863 0
0.419535 0.119633 0
0.514462 0.113067 0
0.446148 0.170863 0
0.489315 0.202908 0
0.514462 0.113067 0
0.5798 0.13223 0
0.489315 0.202908 0
0.581246 0.187108 0
0.5798 0.13223 0
0.641314 0.115758 0
0.581246 0.187108 0
0.607311 0.193716 0
0.641314 0.115758 0
0.701205 0.137796 0
0.607311 0.193716 0
0.68447 0.168996 0
0.701205 0.137796 0
0.76865 0.123064 0
0.68447 0.168996 0
0.742906 0.170144 0
0.76865 0.123064 0
0.797305 0.114015 0
0.742906 0.170144 0
0.822047 0.171363 0
0.797305 0.114015 0
0.883069 0.108075 0
0.822047 0.171363 0
0.885071 0.171685 0
0.883069 0.108075 0
0.921439 0.115325 0
0.885071 0.171685 0
0.919499 0.182253 0
0.921439 0.115325 0
1 0.125 0
0.919499 0.182253 0
1 0.1875 0
0 0.1875 0
0.073181 0.20291 0
0 0.25 0
0.0580616 0.231783 0
0.073181 0.20291 0
0.107542 0.180659 0
0.0580616 0.231783 0
0.106721 0.245824 0
0.107542 0.180659 0
0.177865 0.203585 0
0.106721 0.245824 0
0.195854 0.266786 0
0.177865 0.203585 0
0.235167 0.176031 0
0.195854 0.266786 0
0.258351 0.266788 0
0.235167 0.176031 0
0.300651 0.202031 0
0.258351 0.266788 0
0.324459 0.264441 0
0.300651 0.202031 0
0.38829 0.200726 0
0.324459 0.264441 0
0.361193 0.262685 0
0.38829 0.200726 0
0.446148 0.170863 0
0.361193 0.262685 0
0.443874 0.232366 0
0.446148 0.170863 0
0.489315 0.202908 0
0.443874 0.232366 0
0.511115 0.2651 0
0.489315 0.202908 0
0.581246 0.187108 0
0.511115 0.2651 0
0.545254 0.257359 0
0.581246 0.187108 0
0.607311 0.193716 0
0.545254 0.257359 0
0.606374 0.247851 0
0.607311 0.193716 0
0.68447 0.168996 0
0.606374 0.247851 0
0.687388 0.26875 0
0.68447 0.168996 0
0.742906 0.170144 0
0.687388 0.26875 0
0.768513 0.25297 0
0.742906 0.170144 0
0.822047 0.171363 0
0.768513 0.25297 0
0.805186 0.267265 0
0.822047 0.171363 0
0.885071 0.171685 0
0.805186 0.267265 0
0.88 0.268071 0
0.885071 0.171685 0
0.919499 0.182253 0
0.88 0.268071 0
0.928181 0.23373 0
0.919499 0.182253 0
1 0.1875 0
0.928181 0.23373 0
1 0.25 0
0 0.25 0
0.0580616 0.231783 0
0 0.3125 0
0.0740517 0.327269 0
0.0580616 0.231783 0
0.106721 0.245824 0
0.0740517 0.327269 0
0.113623 0.327404 0
0.106721 0.245824 0
0.195854 0.266786 0
0.113623 0.327404 0
0.187754 0.331248 0
0.195854 0.266786 0
0.258351 0.266788 0
0.187754 0.331248 0
0.26717 0.304967 0
0.258351 0.266788 0
0.324459 0.264441 0
0.26717 0.304967 0
0.330898 0.308884 0
0.324459 0.264441 0
0.361193 0.262685 0
0.330898 0.308884 0
0.393465 0.315755 0
0.361193 0.262685 0
0.443874 0.232366 0
0.393465 0.315755 0
0.440065 0.293926 0
0.443874 0.232366 0
0.511115 0.2651 0
0.440065 0.293926 0
0.484814 0.323498 0
0.511115 0.2651 0
0.545254 0.257359 0
0.484814 0.323498 0
0.54764 0.301066 0
0.545254 0.257359 0
0.606374 0.247851 0
0.54764 0.301066 0
0.613442 0.327264 0
0.606374 0.247851 0
0.687388 0.26875 0
0.613442 0.327264 0
0.698226 0.327879 0
0.687388 0.26875 0
0.768513 0.25297 0
0.698226 0.327879 0
0.734509 0.301937 0
0.768513 0.25297 0
0.805186 0.267265 0
0.734509 0.301937 0
0.828315 0.302428 0
0.805186 0.267265 0
0.88 0.268071 0
0.828315 0.302428 0
0.866255 0.295914 0
0.88 0.268071 0
0.928181 0.23373 0
0.866255 0.295914 0
0.953158 0.302186 0
0.928181 0.23373 0
1 0.25 0
0.953158 0.302186 0
1 0.3125 0
0 0.3125 0
0.0740517 0.327269 0
0 0.375 0
0.0560205 0.392595 0
0.0740517 0.327269 0
0.113623 0.327404 0
0.0560205 0.392595 0
0.112688 0.389141 0
0.113623 0.327404 0
0.187754 0.331248 0
0.112688 0.389141 0
0.178501 0.39145 0
0.187754 0.331248 0
0.26717 0.304967 0
0.178501 0.39145 0
0.257203 0.392311 0
0.26717 0.304967 0
0.330898 0.308884 0
0.257203 0.392311 0
0.311474 0.393722 0
0.330898 0.308884 0
0.393465 0.315755 0
0.311474 0.393722 0
0.368916 0.357265 0
0.393465 0.315755 0
0.440065 0.293926 0
0.368916 0.357265 0
0.451524 0.387446 0
0.440065 0.293926 0
0.484814 0.323498 0
0.451524 0.387446 0
0.51256 0.388921 0
0.484814 0.323498 0
0.54764 0.301066 0
0.51256 0.388921 0
0.566416 0.393336 0
0.54764 0.301066 0
0.613442 0.327264 0
0.566416 0.393336 0
0.641982 0.382947 0
0.613442 0.327264 0
0.698226 0.327879 0
0.641982 0.382947 0
0.673141 0.387057 0
0.698226 0.327879 0
0.734509 0.301937 0
0.673141 0.387057 0
0.767295 0.367759 0
0.734509 0.301937 0
0.828315 0.302428 0
0.767295 0.367759 0
0.830721 0.379421 0
0.828315 0.302428 0
0.866255 0.295914 0
0.830721 0.379421 0
0.867894 0.357649 0
0.866255 0.295914 0
0.953158 0.302186 0
0.867894 0.357649 0
0.954887 0.382017 0
0.953158 0.302186 0
1 0.3125 0
0.954887 0.382017 0
1 0.375 0
0 0.375 0
0.0560205 0.392595 0
0 0.4375 0
0.0442106 0.433369 0
0.0560205 0.392595 0
0.112688 0.389141 0
0.0442106 0.433369 0
0.107195 0.431623 0
0.112688 0.389141 0
0.178501 0.39145 0
0.107195 0.431623 0
0.193404 0.455296 0
0.178501 0.39145 0
0.257203 0.392311 0
0.193404 0.455296 0
0.266672 0.428921 0
0.257203 0.392311 0
0.311474 0.393722 0
0.266672 0.428921 0
0.325294 0.451207 0
0.311474 0.393722 0
0.368916 0.357265 0
0.325294 0.451207 0
0.361295 0.424704 0
0.368916 0.357265 0
0.451524 0.387446 0
0.361295 0.424704 0
0.447772 0.421814 0
0.451524 0.387446 0
0.51256 0.388921 0
0.447772 0.421814 0
0.495086 0.419405 0
0.51256 0.388921 0
0.566416 0.393336 0
0.495086 0.419405 0
0.545498 0.445406 0
0.566416 0.393336 0
0.641982 0.382947 0
0.545498 0.445406 0
0.609525 0.426913 0
0.641982 0.382947 0
0.673141 0.387057 0
0.609525 0.426913 0
0.675875 0.452211 0
0.673141 0.387057 0
0.767295 0.367759 0
0.675875 0.452211 0
0.768323 0.433522 0
0.767295 0.367759 0
0.830721 0.379421 0
0.768323 0.433522 0
0.803843 0.454132 0
0.830721 0.379421 0
0.867894 0.357649 0
0.803843 0.454132 0
0.879325 0.455744 0
0.867894 0.357649 0
0.954887 0.382017 0
0.879325 0.455744 0
0.925123 0.423416 0
0.954887 0.382017 0
1 0.375 0
0.925123 0.423416 0
1 0.4375 0
0 0.4375 0
0.0442106 0.433369 0
0 0.5 0
0.0805789 0.495029 0
0.0442106 0.433369 0
0.107195 0.431623 0
0.0805789 0.495029 0
0.109453 0.48952 0
0.107195 0.431623 0
0.193404 0.455296 0
0.109453 0.48952 0
0.205908 0.503565 0
0.193404 0.455296 0
0.266672 0.428921 0
0.205908 0.503565 0
0.262352 0.514107 0
0.266672 0.428921 0
0.325294 0.451207 0
0.262352 0.514107 0
0.320994 0.516716 0
0.325294 0.451207 0
0.361295 0.424704 0
0.320994 0.516716 0
0.370896 0.518295 0
0.361295 0.424704 0
0.447772 0.421814 0
0.370896 0.518295 0
0.424184 0.513201 0
0.447772 0.421814 0
0.495086 0.419405 0
0.424184 0.513201 0
0.481254 0.50038 0
0.495086 0.419405 0
0.545498 0.445406 0
0.481254 0.50038 0
0.581066 0.502617 0
0.545498 0.445406 0
0.609525 0.426913 0
0.581066 0.502617 0
0.606251 0.500172 0
0.609525 0.426913 0
0.675875 0.452211 0
0.606251 0.500172 0
0.706127 0.497855 0
0.675875 0.452211 0
0.768323 0.433522 0
0.706127 0.497855 0
0.761914 0.514478 0
0.768323 0.433522 0
0.803843 0.454132 0
0.761914 0.514478 0
0.831146 0.49803 0
0.803843 0.454132 0
0.879325 0.455744 0
0.831146 0.49803 0
0.860645 0.512062 0
0.879325 0.455744 0
0.925123 0.423416 0
0.860645 0.512062 0
0.928465 0.516429 0
0.925123 0.423416 0
1 0.4375 0
0.928465 0.516429 0
1 0.5 0
0 0.5 0
[...]
  <PointData Scalars="scalars">
    <DataArray type="Float32" Name="level" format="ascii">
0 0 0 0 0 0 0 0 0 0 0 0 0 0 0 0 0 0 0 0 0 0 0 0 0 0 0 0 0 0 0 0 0 0 0 0 0 0 0 0 0 0 0 0 0 0 0 0 0 0 0 0 0 0 0 0 0 0 0 0 0 0 0 0 0 0 0 0 0 0 0 0 0 0 0 0 0 0 0 0 0 0 0 0 0 0 0 0 0 0 0 0 0 0 0 0 0 0 0 0 0 0 0 0 0 0 0 0 0 0 0 0 0 0 0 0 0 0 0 0 0 0 0 0 0 0 0 0 0 0 0 0 0 0 0 0 0 0 0 0 0 0 0 0 0 0 0 0 0 0 0 0 0 0 0 0 0 0 0 0 0 0 0 0 0 0 0 0 0 0 0 0 0 0 0 0 0 0 0 0 0 0 0 0 0 0 0 0 0 0 0 0 0 0 0 0 0 0 0 0 0 0 0 0 0 0 0 0 0 0 0 0 0 0 0 0 0 0 0 0 0 0 0 0 0 0 0 0 0 0 0 0 0 0 0 0 0 0 0 0 0 0 0 0 0 0 0 0 0 0 0 0 0 0 0 0 0 0 0 0 0 0 0 0 0 0 0 0 0 0 0 0 0 0 0 0 0 0 0 0 0 0 0 0 0 0 0 0 0 0 0 0 0 0 0 0 0 0 0 0 0 0 0 0 0 0 0 0 0 0 0 0 0 0 0 0 0 0 0 0 0 0 0 0 0 0 0 0 0 0 0 0 0 0 0 0 0 0 0 0 0 0 0 0 0 0 0 0 0 0 0 0 0 0 0 0 0 0 0 0 0 0 0 0 0 0 0 0 0 0 0 0 0 0 0 0 0 0 0 0 0 0 0 0 0 0 0 0 0 0 0 0 0 0 0 0 0 0 0 0 0 0 0 0 0 0 0 0 0 0 0 0 0 0 0 0 0 0 0 0 0 0 0 0 0 0 0 0 0 0 0 0 0 0 0 0 0 0 0 0 0 0 0 0 0 0 0 0 0 0 0 0 0 0 0 0 0 0 0 0 0 0 0 0 0 0 0 0 0 0 0 0 0 0 0 0 0 0 0 0 0 0 0 0 0 0 0 0 0 0 0 0 0 0 0 0 0 0 0 0 0 0 0 0 0 0 0 0 0 0 0 0 0 0 0 0 0 0 0 0 0 0 0 0 0 0 0 0 0 0 0 0 0 0 0 0 0 0 0 0 0 0 0 0 0 0 0 0 0 0 0 0 0 0 0 0 0 0 0 0 0 0 0 0 0 0 0 0 0 0 0 0 0 0 0 0 0 0 0 0 0 0 0 0 0 0 0 0 0 0 0 0 0 0 0 0 0 0 0 0 0 0 0 0 0 0 0 0 0 0 0 0 0 0 0 0 0 0 0 0 0 0 0 0 0 0 0 0 0 0 0 0 0 0 0 0 0 0 0 0 0 0 0 0 0 0 0 0 0 0 0 0 0 0 0 0 0 0 0 0 0 0 0 0 0 0 0 0 0 0 0 0 0 0 0 0 0 0 0 0 0 0 0 0 0 0 0 0 0 0 0 0 0 0 0 0 0 0 0 0 0 0 0 0 0 0 0 0 0 0 0 0 0 0 0 0 0 0 0 0 0 0 0 0 0 0 0 0 0 0 0 0 0 0 0 0 0 0 0 0 0 0 0 0 0 0 0 0 0 0 0 0 0 0 0 0 0 0 0 0 0 0 0 0 0 0 0 0 0 0 0 0 0 0 0 0 0 0 0 0 0 0 0 0 0 0 0 0 0 0 0 0 0 0 0 0 0 0 0 0 0 0 0 0 0 0 0 0 0 0 0 0 0 0 0 0 0 0 0 0 0 0 0 0 0 0 0 0 0 0 0 0 0 0 0 0 0 0 0 0 0 0 0 0 0 0 0 0 0 0 0 0 0 0 0 0 0 0 0 0 0 0 0 0 0 0 0 0 0 0 0 0 0 0 0 0 0 0 0 0 0 0 0 0 0 0 0 0 0 0 0 0 0 0 0 0 0 0 0 0 0 0 0 0 0 0 0 0 0 0 0 0 0 0 0 0 0 0 0 0 0 0 0 0 0 0 0 0 0 0 0 0 0 0 0 0 0 0 0 0 0 0 0 0 0 0 0 0 0 0 0 0 0 0 0 0 0 0 0 0 0 0 0 0 0 0 0 0 0 0 0 0 0 0 0 0 0 0 0 0 0 0 0 0 0 0 0 0 0 0 0 0 0 0 0 0 0 0 0 0 0 0 0 0 0 0 0 0 0 0 0 0 0 0 0 0 0 0 0 0 0 0 0 0     </DataArray>
    <DataArray type="Float32" Name="manifold" format="ascii">
-1 -1 -1 -1 -1 -1 -1 -1 -1 -1 -1 -1 -1 -1 -1 -1 -1 -1 -1 -1 -1 -1 -1 -1 -1 -1 -1 -1 -1 -1 -1 -1 -1 -1 -1 -1 -1 -1 -1 -1 -1 -1 -1 -1 -1 -1 -1 -1 -1 -1 -1 -1 -1 -1 -1 -1 -1 -1 -1 -1 -1 -1 -1 -1 -1 -1 -1 -1 -1 -1 -1 -1 -1 -1 -1 -1 -1 -1 -1 -1 -1 -1 -1 -1 -1 -1 -1 -1 -1 -1 -1 -1 -1 -1 -1 -1 -1 -1 -1 -1 -1 -1 -1 -1 -1 -1 -1 -1 -1 -1 -1 -1 -1 -1 -1 -1 -1 -1 -1 -1 -1 -1 -1 -1 -1 -1 -1 -1 -1 -1 -1 -1 -1 -1 -1 -1 -1 -1 -1 -1 -1 -1 -1 -1 -1 -1 -1 -1 -1 -1 -1 -1 -1 -1 -1 -1 -1 -1 -1 -1 -1 -1 -1 -1 -1 -1 -1 -1 -1 -1 -1 -1 -1 -1 -1 -1 -1 -1 -1 -1 -1 -1 -1 -1 -1 -1 -1 -1 -1 -1 -1 -1 -1 -1 -1 -1 -1 -1 -1 -1 -1 -1 -1 -1 -1 -1 -1 -1 -1 -1 -1 -1 -1 -1 -1 -1 -1 -1 -1 -1 -1 -1 -1 -1 -1 -1 -1 -1 -1 -1 -1 -1 -1 -1 -1 -1 -1 -1 -1 -1 -1 -1 -1 -1 -1 -1 -1 -1 -1 -1 -1 -1 -1 -1 -1 -1 -1 -1 -1 -1 -1 -1 -1 -1 -1 -1 -1 -1 -1 -1 -1 -1 -1 -1 -1 -1 -1 -1 -1 -1 -1 -1 -1 -1 -1 -1 -1 -1 -1 -1 -1 -1 -1 -1 -1 -1 -1 -1 -1 -1 -1 -1 -1 -1 -1 -1 -1 -1 -1 -1 -1 -1 -1 -1 -1 -1 -1 -1 -1 -1 -1 -1 -1 -1 -1 -1 -1 -1 -1 -1 -1 -1 -1 -1 -1 -1 -1 -1 -1 -1 -1 -1 -1 -1 -1 -1 -1 -1 -1 -1 -1 -1 -1 -1 -1 -1 -1 -1 -1 -1 -1 -1 -1 -1 -1 -1 -1 -1 -1 -1 -1 -1 -1 -1 -1 -1 -1 -1 -1 -1 -1 -1 -1 -1 -1 -1 -1 -1 -1 -1 -1 -1 -1 -1 -1 -1 -1 -1 -1 -1 -1 -1 -1 -1 -1 -1 -1 -1 -1 -1 -1 -1 -1 -1 -1 -1 -1 -1 -1 -1 -1 -1 -1 -1 -1 -1 -1 -1 -1 -1 -1 -1 -1 -1 -1 -1 -1 -1 -1 -1 -1 -1 -1 -1 -1 -1 -1 -1 -1 -1 -1 -1 -1 -1 -1 -1 -1 -1 -1 -1 -1 -1 -1 -1 -1 -1 -1 -1 -1 -1 -1 -1 -1 -1 -1 -1 -1 -1 -1 -1 -1 -1 -1 -1 -1 -1 -1 -1 -1 -1 -1 -1 -1 -1 -1 -1 -1 -1 -1 -1 -1 -1 -1 -1 -1 -1 -1 -1 -1 -1 -1 -1 -1 -1 -1 -1 -1 -1 -1 -1 -1 -1 -1 -1 -1 -1 -1 -1 -1 -1 -1 -1 -1 -1 -1 -1 -1 -1 -1 -1 -1 -1 -1 -1 -1 -1 -1 -1 -1 -1 -1 -1 -1 -1 -1 -1 -1 -1 -1 -1 -1 -1 -1 -1 -1 -1 -1 -1 -1 -1 -1 -1 -1 -1 -1 -1 -1 -1 -1 -1 -1 -1 -1 -1 -1 -1 -1 -1 -1 -1 -1 -1 -1 -1 -1 -1 -1 -1 -1 -1 -1 -1 -1 -1 -1 -1 -1 -1 -1 -1 -1 -1 -1 -1 -1 -1 -1 -1 -1 -1 -1 -1 -1 -1 -1 -1 -1 -1 -1 -1 -1 -1 -1 -1 -1 -1 -1 -1 -1 -1 -1 -1 -1 -1 -1 -1 -1 -1 -1 -1 -1 -1 -1 -1 -1 -1 -1 -1 -1 -1 -1 -1 -1 -1 -1 -1 -1 -1 -1 -1 -1 -1 -1 -1 -1 -1 -1 -1 -1 -1 -1 -1 -1 -1 -1 -1 -1 -1 -1 -1 -1 -1 -1 -1 -1 -1 -1 -1 -1 -1 -1 -1 -1 -1 -1 -1 -1 -1 -1 -1 -1 -1 -1 -1 -1 -1 -1 -1 -1 -1 -1 -1 -1 -1 -1 -1 -1 -1 -1 -1 -1 -1 -1 -1 -1 -1 -1 -1 -1 -1 -1 -1 -1 -1 -1 -1 -1 -1 -1 -1 -1 -1 -1 -1 -1 -1 -1 -1 -1 -1 -1 -1 -1 -1 -1 -1 -1 -1 -1 -1 -1 -1 -1 -1 -1 -1 -1 -1 -1 -1 -1 -1 -1 -1 -1 -1 -1 -1 -1 -1 -1 -1 -1 -1 -1 -1 -1 -1 -1 -1 -1 -1 -1 -1 -1 -1 -1 -1 -1 -1 -1 -1 -1 -1 -1 -1 -1 -1 -1 -1 -1 -1 -1 -1 -1 -1 -1 -1 -1 -1 -1 -1 -1 -1 -1 -1 -1 -1 -1 -1 -1 -1 -1 -1 -1 -1 -1 -1 -1 -1 -1 -1 -1 -1 -1 -1 -1 -1 -1 -1 -1 -1 -1 -1 -1 -1 -1 -1 -1 -1 -1 -1 -1 -1 -1 -1 -1 -1 -1 -1 -1 -1 -1 -1 -1 -1 -1 -1 -1 -1 -1 -1 -1 -1 -1 -1 -1 -1 -1 -1 -1 -1 -1 -1 -1 -1 -1 -1 -1 -1 -1 -1 -1 -1 -1 -1 -1 -1 -1 -1 -1 -1 -1 -1 -1 -1 -1 -1 -1 -1 -1 -1 -1 -1 -1 -1 -1 -1 -1 -1 -1 -1 -1 -1 -1 -1 -1 -1 -1 -1 -1 -1 -1 -1 -1 -1 -1 -1 -1 -1 -1 -1 -1 -1 -1 -1 -1 -1 -1 -1 -1 -1 -1 -1 -1 -1 -1 -1 -1 -1 -1 -1 -1 -1 -1 -1 -1 -1 -1 -1 -1 -1 -1 -1 -1 -1 -1 -1 -1 -1 -1 -1 -1 -1 -1 -1 -1 -1 -1 -1 -1 -1 -1 -1 -1 -1 -1 -1 -1 -1 -1 -1 -1 -1     </DataArray>
    <DataArray type="Float32" Name="material" format="ascii">
0 0 0 0 0 0 0 0 0 0 0 0 0 0 0 0 0 0 0 0 0 0 0 0 0 0 0 0 0 0 0 0 0 0 0 0 0 0 0 0 0 0 0 0 0 0 0 0 0 0 0 0 0 0 0 0 0 0 0 0 0 0 0 0 0 0 0 0 0 0 0 0 0 0 0 0 0 0 0 0 0 0 0 0 0 0 0 0 0 0 0 0 0 0 0 0 0 0 0 0 0 0 0 0 0 0 0 0 0 0 0 0 0 0 0 0 0 0 0 0 0 0 0 0 0 0 0 0 0 0 0 0 0 0 0 0 0 0 0 0 0 0 0 0 0 0 0 0 0 0 0 0 0 0 0 0 0 0 0 0 0 0 0 0 0 0 0 0 0 0 0 0 0 0 0 0 0 0 0 0 0 0 0 0 0 0 0 0 0 0 0 0 0 0 0 0 0 0 0 0 0 0 0 0 0 0 0 0 0 0 0 0 0 0 0 0 0 0 0 0 0 0 0 0 0 0 0 0 0 0 0 0 0 0 0 0 0 0 0 0 0 0 0 0 0 0 0 0 0 0 0 0 0 0 0 0 0 0 0 0 0 0 0 0 0 0 0 0 0 0 0 0 0 0 0 0 0 0 0 0 0 0 0 0 0 0 0 0 0 0 0 0 0 0 0 0 0 0 0 0 0 0 0 0 0 0 0 0 0 0 0 0 0 0 0 0 0 0 0 0 0 0 0 0 0 0 0 0 0 0 0 0 0 0 0 0 0 0 0 0 0 0 0 0 0 0 0 0 0 0 0 0 0 0 0 0 0 0 0 0 0 0 0 0 0 0 0 0 0 0 0 0 0 0 0 0 0 0 0 0 0 0 0 0 0 0 0 0 0 0 0 0 0 0 0 0 0 0 0 0 0 0 0 0 0 0 0 0 0 0 0 0 0 0 0 0 0 0 0 0 0 0 0 0 0 0 0 0 0 0 0 0 0 0 0 0 0 0 0 0 0 0 0 0 0 0 0 0 0 0 0 0 0 0 0 0 0 0 0 0 0 0 0 0 0 0 0 0 0 0 0 0 0 0 0 0 0 0 0 0 0 0 0 0 0 0 0 0 0 0 0 0 0 0 0 0 0 0 0 0 0 0 0 0 0 0 0 0 0 0 0 0 0 0 0 0 0 0 0 0 0 0 0 0 0 0 0 0 0 0 0 0 0 0 0 0 0 0 0 0 0 0 0 0 0 0 0 0 0 0 0 0 0 0 0 0 0 0 0 0 0 0 0 0 0 0 0 0 0 0 0 0 0 0 0 0 0 0 0 0 0 0 0 0 0 0 0 0 0 0 0 0 0 0 0 0 0 0 0 0 0 0 0 0 0 0 0 0 0 0 0 0 0 0 0 0 0 0 0 0 0 0 0 0 0 0 0 0 0 0 0 0 0 0 0 0 0 0 0 0 0 0 0 0 0 0 0 0 0 0 0 0 0 0 0 0 0 0 0 0 0 0 0 0 0 0 0 0 0 0 0 0 0 0 0 0 0 0 0 0 0 0 0 0 0 0 0 0 0 0 0 0 0 0 0 0 0 0 0 0 0 0 0 0 0 0 0 0 0 0 0 0 0 0 0 0 0 0 0 0 0 0 0 0 0 0 0 0 0 0 0 0 0 0 0 0 0 0 0 0 0 0 0 0 0 0 0 0 0 0 0 0 0 0 0 0 0 0 0 0 0 0 0 0 0 0 0 0 0 0 0 0 0 0 0 0 0 0 0 0 0 0 0 0 0 0 0 0 0 0 0 0 0 0 0 0 0 0 0 0 0 0 0 0 0 0 0 0 0 0 0 0 0 0 0 0 0 0 0 0 0 0 0 0 0 0 0 0 0 0 0 0 0 0 0 0 0 0 0 0 0 0 0 0 0 0 0 0 0 0 0 0 0 0 0 0 0 0 0 0 0 0 0 0 0 0 0 0 0 0 0 0 0 0 0 0 0 0 0 0 0 0 0 0 0 0 0 0 0 0 0 0 0 0 0 0 0 0 0 0 0 0 0 0 0 0 0 0 0 0 0 0 0 0 0 0 0 0 0 0 0 0 0 0 0 0 0 0 0 0 0 0 0 0 0 0 0 0 0 0 0 0 0 0 0 0 0 0 0 0 0 0 0 0 0 0 0 0 0 0 0 0 0 0 0 0 0 0 0 0 0 0 0 0 0 0 0 0 0 0 0 0 0 0 0 0 0 0 0 0 0 0 0 0 0 0 0 0 0 0 0 0 0 0 0 0 0 0 0 0 0 0 0 0 0 0 0 0 0 0 0 0 0 0     </DataArray>
    <DataArray type="Float32" Name="subdomain" format="ascii">
0 0 0 0 0 0 0 0 0 0 0 0 0 0 0 0 0 0 0 0 0 0 0 0 0 0 0 0 0 0 0 0 0 0 0 0 0 0 0 0 0 0 0 0 0 0 0 0 0 0 0 0 0 0 0 0 0 0 0 0 0 0 0 0 0 0 0 0 0 0 0 0 0 0 0 0 0 0 0 0 0 0 0 0 0 0 0 0 0 0 0 0 0 0 0 0 0 0 0 0 0 0 0 0 0 0 0 0 0 0 0 0 0 0 0 0 0 0 0 0 0 0 0 0 0 0 0 0 0 0 0 0 0 0 0 0 0 0 0 0 0 0 0 0 0 0 0 0 0 0 0 0 0 0 0 0 0 0 0 0 0 0 0 0 0 0 0 0 0 0 0 0 0 0 0 0 0 0 0 0 0 0 0 0 0 0 0 0 0 0 0 0 0 0 0 0 0 0 0 0 0 0 0 0 0 0 0 0 0 0 0 0 0 0 0 0 0 0 0 0 0 0 0 0 0 0 0 0 0 0 0 0 0 0 0 0 0 0 0 0 0 0 0 0 0 0 0 0 0 0 0 0 0 0 0 0 0 0 0 0 0 0 0 0 0 0 0 0 0 0 0 0 0 0 0 0 0 0 0 0 0 0 0 0 0 0 0 0 0 0 0 0 0 0 0 0 0 0 0 0 0 0 0 0 0 0 0 0 0 0 0 0 0 0 0 0 0 0 0 0 0 0 0 0 0 0 0 0 0 0 0 0 0 0 0 0 0 0 0 0 0 0 0 0 0 0 0 0 0 0 0 0 0 0 0 0 0 0 0 0 0 0 0 0 0 0 0 0 0 0 0 0 0 0 0 0 0 0 0 0 0 0 0 0 0 0 0 0 0 0 0 0 0 0 0 0 0 0 0 0 0 0 0 0 0 0 0 0 0 0 0 0 0 0 0 0 0 0 0 0 0 0 0 0 0 0 0 0 0 0 0 0 0 0 0 0 0 0 0 0 0 0 0 0 0 0 0 0 0 0 0 0 0 0 0 0 0 0 0 0 0 0 0 0 0 0 0 0 0 0 0 0 0 0 0 0 0 0 0 0 0 0 0 0 0 0 0 0 0 0 0 0 0 0 0 0 0 0 0 0 0 0 0 0 0 0 0 0 0 0 0 0 0 0 0 0 0 0 0 0 0 0 0 0 0 0 0 0 0 0 0 0 0 0 0 0 0 0 0 0 0 0 0 0 0 0 0 0 0 0 0 0 0 0 0 0 0 0 0 0 0 0 0 0 0 0 0 0 0 0 0 0 0 0 0 0 0 0 0 0 0 0 0 0 0 0 0 0 0 0 0 0 0 0 0 0 0 0 0 0 0 0 0 0 0 0 0 0 0 0 0 0 0 0 0 0 0 0 0 0 0 0 0 0 0 0 0 0 0 0 0 0 0 0 0 0 0 0 0 0 0 0 0 0 0 0 0 0 0 0 0 0 0 0 0 0 0 0 0 0 0 0 0 0 0 0 0 0 0 0 0 0 0 0 0 0 0 0 0 0 0 0 0 0 0 0 0 0 0 0 0 0 0 0 0 0 0 0 0 0 0 0 0 0 0 0 0 0 0 0 0 0 0 0 0 0 0 0 0 0 0 0 0 0 0 0 0 0 0 0 0 0 0 0 0 0 0 0 0 0 0 0 0 0 0 0 0 0 0 0 0 0 0 0 0 0 0 0 0 0 0 0 0 0 0 0 0 0 0 0 0 0 0 0 0 0 0 0 0 0 0 0 0 0 0 0 0 0 0 0 0 0 0 0 0 0 0 0 0 0 0 0 0 0 0 0 0 0 0 0 0 0 0 0 0 0 0 0 0 0 0 0 0 0 0 0 0 0 0 0 0 0 0 0 0 0 0 0 0 0 0 0 0 0 0 0 0 0 0 0 0 0 0 0 0 0 0 0 0 0 0 0 0 0 0 0 0 0 0 0 0 0 0 0 0 0 0 0 0 0 0 0 0 0 0 0 0 0 0 0 0 0 0 0 0 0 0 0 0 0 0 0 0 0 0 0 0 0 0 0 0 0 0 0 0 0 0 0 0 0 0 0 0 0 0 0 0 0 0 0 0 0 0 0 0 0 0 0 0 0 0 0 0 0 0 0 0 0 0 0 0 0 0 0 0 0 0 0 0 0 0 0 0 0 0 0 0 0 0 0 0 0 0 0 0 0 0 0 0 0 0 0 0 0 0 0 0 0 0 0 0 0 0 0 0 0 0 0 0 0 0 0 0 0 0 0 0 0 0 0 0 0 0 0 0 0 0 0 0 0 0 0 0 0     </DataArray>
    <DataArray type="Float32" Name="level_subdomain" format="ascii">
0 0 0 0 0 0 0 0 0 0 0 0 0 0 0 0 0 0 0 0 0 0 0 0 0 0 0 0 0 0 0 0 0 0 0 0 0 0 0 0 0 0 0 0 0 0 0 0 0 0 0 0 0 0 0 0 0 0 0 0 0 0 0 0 0 0 0 0 0 0 0 0 0 0 0 0 0 0 0 0 0 0 0 0 0 0 0 0 0 0 0 0 0 0 0 0 0 0 0 0 0 0 0 0 0 0 0 0 0 0 0 0 0 0 0 0 0 0 0 0 0 0 0 0 0 0 0 0 0 0 0 0 0 0 0 0 0 0 0 0 0 0 0 0 0 0 0 0 0 0 0 0 0 0 0 0 0 0 0 0 0 0 0 0 0 0 0 0 0 0 0 0 0 0 0 0 0 0 0 0 0 0 0 0 0 0 0 0 0 0 0 0 0 0 0 0 0 0 0 0 0 0 0 0 0 0 0 0 0 0 0 0 0 0 0 0 0 0 0 0 0 0 0 0 0 0 0 0 0 0 0 0 0 0 0 0 0 0 0 0 0 0 0 0 0 0 0 0 0 0 0 0 0 0 0 0 0 0 0 0 0 0 0 0 0 0 0 0 0 0 0 0 0 0 0 0 0 0 0 0 0 0 0 0 0 0 0 0 0 0 0 0 0 0 0 0 0 0 0 0 0 0 0 0 0 0 0 0 0 0 0 0 0 0 0 0 0 0 0 0 0 0 0 0 0 0 0 0 0 0 0 0 0 0 0 0 0 0 0 0 0 0 0 0 0 0 0 0 0 0 0 0 0 0 0 0 0 0 0 0 0 0 0 0 0 0 0 0 0 0 0 0 0 0 0 0 0 0 0 0 0 0 0 0 0 0 0 0 0 0 0 0 0 0 0 0 0 0 0 0 0 0 0 0 0 0 0 0 0 0 0 0 0 0 0 0 0 0 0 0 0 0 0 0 0 0 0 0 0 0 0 0 0 0 0 0 0 0 0 0 0 0 0 0 0 0 0 0 0 0 0 0 0 0 0 0 0 0 0 0 0 0 0 0 0 0 0 0 0 0 0 0 0 0 0 0 0 0 0 0 0 0 0 0 0 0 0 0 0 0 0 0 0 0 0 0 0 0 0 0 0 0 0 0 0 0 0 0 0 0 0 0 0 0 0 0 0 0 0 0 0 0 0 0 0 0 0 0 0 0 0 0 0 0 0 0 0 0 0 0 0 0 0 0 0 0 0 0 0 0 0 0 0 0 0 0 0 0 0 0 0 0 0 0 0 0 0 0 0 0 0 0 0 0 0 0 0 0 0 0 0 0 0 0 0 0 0 0 0 0 0 0 0 0 0 0 0 0 0 0 0 0 0 0 0 0 0 0 0 0 0 0 0 0 0 0 0 0 0 0 0 0 0 0 0 0 0 0 0 0 0 0 0 0 0 0 0 0 0 0 0 0 0 0 0 0 0 0 0 0 0 0 0 0 0 0 0 0 0 0 0 0 0 0 0 0 0 0 0 0 0 0 0 0 0 0 0 0 0 0 0 0 0 0 0 0 0 0 0 0 0 0 0 0 0 0 0 0 0 0 0 0 0 0 0 0 0 0 0 0 0 0 0 0 0 0 0 0 0 0 0 0 0 0 0 0 0 0 0 0 0 0 0 0 0 0 0 0 0 0 0 0 0 0 0 0 0 0 0 0 0 0 0 0 0 0 0 0 0 0 0 0 0 0 0 0 0 0 0 0 0 0 0 0 0 0 0 0 0 0 0 0 0 0 0 0 0 0 0 0 0 0 0 0 0 0 0 0 0 0 0 0 0 0 0 0 0 0 0 0 0 0 0 0 0 0 0 0 0 0 0 0 0 0 0 0 0 0 0 0 0 0 0 0 0 0 0 0 0 0 0 0 0 0 0 0 0 0 0 0 0 0 0 0 0 0 0 0 0 0 0 0 0 0 0 0 0 0 0 0 0 0 0 0 0 0 0 0 0 0 0 0 0 0 0 0 0 0 0 0 0 0 0 0 0 0 0 0 0 0 0 0 0 0 0 0 0 0 0 0 0 0 0 0 0 0 0 0 0 0 0 0 0 0 0 0 0 0 0 0 0 0 0 0 0 0 0 0 0 0 0 0 0 0 0 0 0 0 0 0 0 0 0 0 0 0 0 0 0 0 0 0 0 0 0 0 0 0 0 0 0 0 0 0 0 0 0 0 0 0 0 0 0 0 0 0 0 0 0 0 0 0 0 0 0 0 0 0 0 0 0 0 0 0 0 0 0 0 0 0 0 0 0 0 0 0 0 0 0 0 0 0 0 0     </DataArray>
  </PointData>
 </Piece>
 </UnstructuredGrid>
</VTKFile>
