<?xml version="1.0" ?> 
<!-- 
# vtk DataFile Version 3.0
#This file was generated by the deal.II library on 10:30:51 at 2021/9/3
-->
<VTKFile type="UnstructuredGrid" version="0.1" byte_order="LittleEndian">
<UnstructuredGrid>
<Piece NumberOfPoints="112" NumberOfCells="28" >
  <Points>
    <DataArray type="Float32" NumberOfComponents="3" format="ascii">
0 0 0
0.714286 0.433884 0
0 0.5 0
0.714286 0.933884 0
0.714286 0.433884 0
1.42857 0.781831 0
0.714286 0.933884 0
1.42857 1.28183 0
1.42857 0.781831 0
2.14286 0.974928 0
1.42857 1.28183 0
2.14286 1.47493 0
2.14286 0.974928 0
2.85714 0.974928 0
2.14286 1.47493 0
2.85714 1.47493 0
2.85714 0.974928 0
3.57143 0.781831 0
2.85714 1.47493 0
3.57143 1.28183 0
3.57143 0.781831 0
4.28571 0.433884 0
3.57143 1.28183 0
4.28571 0.933884 0
4.28571 0.433884 0
5 1.22465e-16 0
4.28571 0.933884 0
5 0.5 0
5 1.22465e-16 0
5.71429 -0.433884 0
5 0.5 0
5.71429 0.0661163 0
5.71429 -0.433884 0
6.42857 -0.781831 0
5.71429 0.0661163 0
6.42857 -0.281831 0
6.42857 -0.781831 0
7.14286 -0.974928 0
6.42857 -0.281831 0
7.14286 -0.474928 0
7.14286 -0.974928 0
7.85714 -0.974928 0
7.14286 -0.474928 0
7.85714 -0.474928 0
7.85714 -0.974928 0
8.57143 -0.781831 0
7.85714 -0.474928 0
8.57143 -0.281831 0
8.57143 -0.781831 0
9.28571 -0.433884 0
8.57143 -0.281831 0
9.28571 0.0661163 0
9.28571 -0.433884 0
10 -2.44929e-16 0
9.28571 0.0661163 0
10 0.5 0
0 0.5 0
0.714286 0.933884 0
0 1 0
0.714286 1.43388 0
0.714286 0.933884 0
1.42857 1.28183 0
0.714286 1.43388 0
1.42857 1.78183 0
1.42857 1.28183 0
2.14286 1.47493 0
1.42857 1.78183 0
2.14286 1.97493 0
2.14286 1.47493 0
2.85714 1.47493 0
2.14286 1.97493 0
2.85714 1.97493 0
2.85714 1.47493 0
3.57143 1.28183 0
2.85714 1.97493 0
3.57143 1.78183 0
3.57143 1.28183 0
4.28571 0.933884 0
3.57143 1.78183 0
4.28571 1.43388 0
4.28571 0.933884 0
5 0.5 0
4.28571 1.43388 0
5 1 0
5 0.5 0
5.71429 0.0661163 0
5 1 0
5.71429 0.566116 0
5.71429 0.0661163 0
6.42857 -0.281831 0
5.71429 0.566116 0
6.42857 0.218169 0
6.42857 -0.281831 0
7.14286 -0.474928 0
6.42857 0.218169 0
7.14286 0.0250721 0
7.14286 -0.474928 0
7.85714 -0.474928 0
7.14286 0.0250721 0
7.85714 0.0250721 0
7.85714 -0.474928 0
8.57143 -0.281831 0
7.85714 0.0250721 0
8.57143 0.218169 0
8.57143 -0.281831 0
9.28571 0.0661163 0
8.57143 0.218169 0
9.28571 0.566116 0
9.28571 0.0661163 0
10 0.5 0
9.28571 0.566116 0
10 1 0
    </DataArray>
  </Points>

  <Cells>
    <DataArray type="Int32" Name="connectivity" format="ascii">
0	1	3	2
4	5	7	6
8	9	11	10
12	13	15	14
16	17	19	18
20	21	23	22
24	25	27	26
28	29	31	30
32	33	35	34
36	37	39	38
40	41	43	42
44	45	47	46
48	49	51	50
52	53	55	54
56	57	59	58
60	61	63	62
64	65	67	66
68	69	71	70
72	73	75	74
76	77	79	78
80	81	83	82
84	85	87	86
88	89	91	90
92	93	95	94
96	97	99	98
100	101	103	102
104	105	107	106
108	109	111	110
    </DataArray>
    <DataArray type="Int32" Name="offsets" format="ascii">
4 8 12 16 20 24 28 32 36 40 44 48 52 56 60 64 68 72 76 80 84 88 92 96 100 104 108 112 
    </DataArray>
    <DataArray type="UInt8" Name="types" format="ascii">
9 9 9 9 9 9 9 9 9 9 9 9 9 9 9 9 9 9 9 9 9 9 9 9 9 9 9 9 
    </DataArray>
  </Cells>
  <PointData Scalars="scalars">
    <DataArray type="Float32" Name="level" format="ascii">
0 0 0 0 0 0 0 0 0 0 0 0 0 0 0 0 0 0 0 0 0 0 0 0 0 0 0 0 0 0 0 0 0 0 0 0 0 0 0 0 0 0 0 0 0 0 0 0 0 0 0 0 0 0 0 0 0 0 0 0 0 0 0 0 0 0 0 0 0 0 0 0 0 0 0 0 0 0 0 0 0 0 0 0 0 0 0 0 0 0 0 0 0 0 0 0 0 0 0 0 0 0 0 0 0 0 0 0 0 0 0 0     </DataArray>
    <DataArray type="Float32" Name="manifold" format="ascii">
-1 -1 -1 -1 -1 -1 -1 -1 -1 -1 -1 -1 -1 -1 -1 -1 -1 -1 -1 -1 -1 -1 -1 -1 -1 -1 -1 -1 -1 -1 -1 -1 -1 -1 -1 -1 -1 -1 -1 -1 -1 -1 -1 -1 -1 -1 -1 -1 -1 -1 -1 -1 -1 -1 -1 -1 -1 -1 -1 -1 -1 -1 -1 -1 -1 -1 -1 -1 -1 -1 -1 -1 -1 -1 -1 -1 -1 -1 -1 -1 -1 -1 -1 -1 -1 -1 -1 -1 -1 -1 -1 -1 -1 -1 -1 -1 -1 -1 -1 -1 -1 -1 -1 -1 -1 -1 -1 -1 -1 -1 -1 -1     </DataArray>
    <DataArray type="Float32" Name="material" format="ascii">
0 0 0 0 0 0 0 0 0 0 0 0 0 0 0 0 0 0 0 0 0 0 0 0 0 0 0 0 0 0 0 0 0 0 0 0 0 0 0 0 0 0 0 0 0 0 0 0 0 0 0 0 0 0 0 0 0 0 0 0 0 0 0 0 0 0 0 0 0 0 0 0 0 0 0 0 0 0 0 0 0 0 0 0 0 0 0 0 0 0 0 0 0 0 0 0 0 0 0 0 0 0 0 0 0 0 0 0 0 0 0 0     </DataArray>
    <DataArray type="Float32" Name="subdomain" format="ascii">
0 0 0 0 0 0 0 0 0 0 0 0 0 0 0 0 0 0 0 0 0 0 0 0 0 0 0 0 0 0 0 0 0 0 0 0 0 0 0 0 0 0 0 0 0 0 0 0 0 0 0 0 0 0 0 0 0 0 0 0 0 0 0 0 0 0 0 0 0 0 0 0 0 0 0 0 0 0 0 0 0 0 0 0 0 0 0 0 0 0 0 0 0 0 0 0 0 0 0 0 0 0 0 0 0 0 0 0 0 0 0 0     </DataArray>
    <DataArray type="Float32" Name="level_subdomain" format="ascii">
0 0 0 0 0 0 0 0 0 0 0 0 0 0 0 0 0 0 0 0 0 0 0 0 0 0 0 0 0 0 0 0 0 0 0 0 0 0 0 0 0 0 0 0 0 0 0 0 0 0 0 0 0 0 0 0 0 0 0 0 0 0 0 0 0 0 0 0 0 0 0 0 0 0 0 0 0 0 0 0 0 0 0 0 0 0 0 0 0 0 0 0 0 0 0 0 0 0 0 0 0 0 0 0 0 0 0 0 0 0 0 0     </DataArray>
  </PointData>
 </Piece>
 </UnstructuredGrid>
</VTKFile>
