<?xml version="1.0" ?> 
<!-- 
# vtk DataFile Version 3.0
#This file was generated by the deal.II library on 10:30:51 at 2021/9/3
-->
<VTKFile type="UnstructuredGrid" version="0.1" byte_order="LittleEndian">
<UnstructuredGrid>
<Piece NumberOfPoints="128" NumberOfCells="16" >
  <Points>
    <DataArray type="Float32" NumberOfComponents="3" format="ascii">
1 0 0
1 1 0
0.25 0 0
0.176777 0.176777 0
1 0 1
1 1 1
0.25 0 1
0.176777 0.176777 1
1 0 1
1 1 1
0.25 0 1
0.176777 0.176777 1
1 0 2
1 1 2
0.25 0 2
0.176777 0.176777 2
1 1 0
6.12323e-17 1 0
0.176777 0.176777 0
1.53081e-17 0.25 0
1 1 1
6.12323e-17 1 1
0.176777 0.176777 1
1.53081e-17 0.25 1
1 1 1
6.12323e-17 1 1
0.176777 0.176777 1
1.53081e-17 0.25 1
1 1 2
6.12323e-17 1 2
0.176777 0.176777 2
1.53081e-17 0.25 2
6.12323e-17 1 0
-1 1 0
1.53081e-17 0.25 0
-0.176777 0.176777 0
6.12323e-17 1 1
-1 1 1
1.53081e-17 0.25 1
-0.176777 0.176777 1
6.12323e-17 1 1
-1 1 1
1.53081e-17 0.25 1
-0.176777 0.176777 1
6.12323e-17 1 2
-1 1 2
1.53081e-17 0.25 2
-0.176777 0.176777 2
-1 1 0
-1 1.22465e-16 0
-0.176777 0.176777 0
-0.25 3.06162e-17 0
-1 1 1
-1 1.22465e-16 1
-0.176777 0.176777 1
-0.25 3.06162e-17 1
-1 1 1
-1 1.22465e-16 1
-0.176777 0.176777 1
-0.25 3.06162e-17 1
-1 1 2
-1 1.22465e-16 2
-0.176777 0.176777 2
-0.25 3.06162e-17 2
-1 1.22465e-16 0
-1 -1 0
-0.25 3.06162e-17 0
-0.176777 -0.176777 0
-1 1.22465e-16 1
-1 -1 1
-0.25 3.06162e-17 1
-0.176777 -0.176777 1
-1 1.22465e-16 1
-1 -1 1
-0.25 3.06162e-17 1
-0.176777 -0.176777 1
-1 1.22465e-16 2
-1 -1 2
-0.25 3.06162e-17 2
-0.176777 -0.176777 2
-1 -1 0
-1.83697e-16 -1 0
-0.176777 -0.176777 0
-4.59243e-17 -0.25 0
-1 -1 1
-1.83697e-16 -1 1
-0.176777 -0.176777 1
-4.59243e-17 -0.25 1
-1 -1 1
-1.83697e-16 -1 1
-0.176777 -0.176777 1
-4.59243e-17 -0.25 1
-1 -1 2
-1.83697e-16 -1 2
-0.176777 -0.176777 2
-4.59243e-17 -0.25 2
-1.83697e-16 -1 0
1 -1 0
-4.59243e-17 -0.25 0
0.176777 -0.176777 0
-1.83697e-16 -1 1
1 -1 1
-4.59243e-17 -0.25 1
0.176777 -0.176777 1
-1.83697e-16 -1 1
1 -1 1
-4.59243e-17 -0.25 1
0.176777 -0.176777 1
-1.83697e-16 -1 2
1 -1 2
-4.59243e-17 -0.25 2
0.176777 -0.176777 2
1 -1 0
1 0 0
0.176777 -0.176777 0
0.25 0 0
1 -1 1
1 0 1
0.176777 -0.176777 1
0.25 0 1
1 -1 1
1 0 1
0.176777 -0.176777 1
0.25 0 1
1 -1 2
1 0 2
0.176777 -0.176777 2
0.25 0 2
    </DataArray>
  </Points>

  <Cells>
    <DataArray type="Int32" Name="connectivity" format="ascii">
0	1	3	2	4	5	7	6
8	9	11	10	12	13	15	14
16	17	19	18	20	21	23	22
24	25	27	26	28	29	31	30
32	33	35	34	36	37	39	38
40	41	43	42	44	45	47	46
48	49	51	50	52	53	55	54
56	57	59	58	60	61	63	62
64	65	67	66	68	69	71	70
72	73	75	74	76	77	79	78
80	81	83	82	84	85	87	86
88	89	91	90	92	93	95	94
96	97	99	98	100	101	103	102
104	105	107	106	108	109	111	110
112	113	115	114	116	117	119	118
120	121	123	122	124	125	127	126
    </DataArray>
    <DataArray type="Int32" Name="offsets" format="ascii">
8 16 24 32 40 48 56 64 72 80 88 96 104 112 120 128 
    </DataArray>
    <DataArray type="UInt8" Name="types" format="ascii">
12 12 12 12 12 12 12 12 12 12 12 12 12 12 12 12 
    </DataArray>
  </Cells>
  <PointData Scalars="scalars">
    <DataArray type="Float32" Name="level" format="ascii">
0 0 0 0 0 0 0 0 0 0 0 0 0 0 0 0 0 0 0 0 0 0 0 0 0 0 0 0 0 0 0 0 0 0 0 0 0 0 0 0 0 0 0 0 0 0 0 0 0 0 0 0 0 0 0 0 0 0 0 0 0 0 0 0 0 0 0 0 0 0 0 0 0 0 0 0 0 0 0 0 0 0 0 0 0 0 0 0 0 0 0 0 0 0 0 0 0 0 0 0 0 0 0 0 0 0 0 0 0 0 0 0 0 0 0 0 0 0 0 0 0 0 0 0 0 0 0 0     </DataArray>
    <DataArray type="Float32" Name="manifold" format="ascii">
-1 -1 -1 -1 -1 -1 -1 -1 -1 -1 -1 -1 -1 -1 -1 -1 -1 -1 -1 -1 -1 -1 -1 -1 -1 -1 -1 -1 -1 -1 -1 -1 -1 -1 -1 -1 -1 -1 -1 -1 -1 -1 -1 -1 -1 -1 -1 -1 -1 -1 -1 -1 -1 -1 -1 -1 -1 -1 -1 -1 -1 -1 -1 -1 -1 -1 -1 -1 -1 -1 -1 -1 -1 -1 -1 -1 -1 -1 -1 -1 -1 -1 -1 -1 -1 -1 -1 -1 -1 -1 -1 -1 -1 -1 -1 -1 -1 -1 -1 -1 -1 -1 -1 -1 -1 -1 -1 -1 -1 -1 -1 -1 -1 -1 -1 -1 -1 -1 -1 -1 -1 -1 -1 -1 -1 -1 -1 -1     </DataArray>
    <DataArray type="Float32" Name="material" format="ascii">
0 0 0 0 0 0 0 0 0 0 0 0 0 0 0 0 0 0 0 0 0 0 0 0 0 0 0 0 0 0 0 0 0 0 0 0 0 0 0 0 0 0 0 0 0 0 0 0 0 0 0 0 0 0 0 0 0 0 0 0 0 0 0 0 0 0 0 0 0 0 0 0 0 0 0 0 0 0 0 0 0 0 0 0 0 0 0 0 0 0 0 0 0 0 0 0 0 0 0 0 0 0 0 0 0 0 0 0 0 0 0 0 0 0 0 0 0 0 0 0 0 0 0 0 0 0 0 0     </DataArray>
    <DataArray type="Float32" Name="subdomain" format="ascii">
0 0 0 0 0 0 0 0 0 0 0 0 0 0 0 0 0 0 0 0 0 0 0 0 0 0 0 0 0 0 0 0 0 0 0 0 0 0 0 0 0 0 0 0 0 0 0 0 0 0 0 0 0 0 0 0 0 0 0 0 0 0 0 0 0 0 0 0 0 0 0 0 0 0 0 0 0 0 0 0 0 0 0 0 0 0 0 0 0 0 0 0 0 0 0 0 0 0 0 0 0 0 0 0 0 0 0 0 0 0 0 0 0 0 0 0 0 0 0 0 0 0 0 0 0 0 0 0     </DataArray>
    <DataArray type="Float32" Name="level_subdomain" format="ascii">
0 0 0 0 0 0 0 0 0 0 0 0 0 0 0 0 0 0 0 0 0 0 0 0 0 0 0 0 0 0 0 0 0 0 0 0 0 0 0 0 0 0 0 0 0 0 0 0 0 0 0 0 0 0 0 0 0 0 0 0 0 0 0 0 0 0 0 0 0 0 0 0 0 0 0 0 0 0 0 0 0 0 0 0 0 0 0 0 0 0 0 0 0 0 0 0 0 0 0 0 0 0 0 0 0 0 0 0 0 0 0 0 0 0 0 0 0 0 0 0 0 0 0 0 0 0 0 0     </DataArray>
  </PointData>
 </Piece>
 </UnstructuredGrid>
</VTKFile>
