<?xml version="1.0" ?> 
<!-- 
# vtk DataFile Version 3.0
#This file was generated by the deal.II library on 10:30:51 at 2021/9/3
-->
<VTKFile type="UnstructuredGrid" version="0.1" byte_order="LittleEndian">
<UnstructuredGrid>
<Piece NumberOfPoints="512" NumberOfCells="128" >
  <Points>
    <DataArray type="Float32" NumberOfComponents="3" format="ascii">
1 0 0
1 0.375 0
0.8125 0 0
0.810121 0.293209 0
1 0.375 0
1 0.75 0
0.810121 0.293209 0
0.807742 0.586418 0
0.8125 0 0
0.810121 0.293209 0
0.625 0 0
0.620242 0.211418 0
0.810121 0.293209 0
0.807742 0.586418 0
0.620242 0.211418 0
0.615485 0.422835 0
1 0.75 0
1 1.125 0
0.807742 0.586418 0
0.800968 0.877806 0
1 1.125 0
1 1.5 0
0.800968 0.877806 0
0.794194 1.16919 0
0.807742 0.586418 0
0.800968 0.877806 0
0.615485 0.422835 0
0.601937 0.630612 0
0.800968 0.877806 0
0.794194 1.16919 0
0.601937 0.630612 0
0.588388 0.838388 0
0.625 0 0
0.620242 0.211418 0
0.4375 0 0
0.432719 0.130095 0
0.620242 0.211418 0
0.615485 0.422835 0
0.432719 0.130095 0
0.423227 0.259253 0
0.4375 0 0
0.432719 0.130095 0
0.25 0 0
0.245196 0.0487726 0
0.432719 0.130095 0
0.423227 0.259253 0
0.245196 0.0487726 0
0.23097 0.0956709 0
0.615485 0.422835 0
0.601937 0.630612 0
0.423227 0.259253 0
0.404902 0.384752 0
0.601937 0.630612 0
0.588388 0.838388 0
0.404902 0.384752 0
0.382583 0.507583 0
0.423227 0.259253 0
0.404902 0.384752 0
0.23097 0.0956709 0
0.207867 0.138893 0
0.404902 0.384752 0
0.382583 0.507583 0
0.207867 0.138893 0
0.176777 0.176777 0
1 1.5 0
0.75 1.5 0
0.794194 1.16919 0
0.596556 1.17597 0
0.75 1.5 0
0.5 1.5 0
0.596556 1.17597 0
0.398918 1.18274 0
0.794194 1.16919 0
0.596556 1.17597 0
0.588388 0.838388 0
0.443112 0.851937 0
0.596556 1.17597 0
0.398918 1.18274 0
0.443112 0.851937 0
0.297835 0.865485 0
0.5 1.5 0
0.25 1.5 0
0.398918 1.18274 0
0.199459 1.18512 0
0.25 1.5 0
6.12323e-17 1.5 0
0.199459 1.18512 0
4.97513e-17 1.1875 0
0.398918 1.18274 0
0.199459 1.18512 0
0.297835 0.865485 0
0.148918 0.870242 0
0.199459 1.18512 0
4.97513e-17 1.1875 0
0.148918 0.870242 0
3.82702e-17 0.875 0
0.588388 0.838388 0
0.443112 0.851937 0
0.382583 0.507583 0
0.291002 0.529902 0
0.443112 0.851937 0
0.297835 0.865485 0
0.291002 0.529902 0
0.196753 0.548227 0
0.382583 0.507583 0
0.291002 0.529902 0
0.176777 0.176777 0
0.138893 0.207867 0
0.291002 0.529902 0
0.196753 0.548227 0
0.138893 0.207867 0
0.0956709 0.23097 0
0.297835 0.865485 0
0.148918 0.870242 0
0.196753 0.548227 0
0.0988451 0.557719 0
0.148918 0.870242 0
3.82702e-17 0.875 0
0.0988451 0.557719 0
2.67891e-17 0.5625 0
0.196753 0.548227 0
0.0988451 0.557719 0
0.0956709 0.23097 0
0.0487726 0.245196 0
0.0988451 0.557719 0
2.67891e-17 0.5625 0
0.0487726 0.245196 0
1.53081e-17 0.25 0
6.12323e-17 1.5 0
-0.25 1.5 0
4.97513e-17 1.1875 0
-0.199459 1.18512 0
-0.25 1.5 0
-0.5 1.5 0
-0.199459 1.18512 0
-0.398918 1.18274 0
4.97513e-17 1.1875 0
-0.199459 1.18512 0
3.82702e-17 0.875 0
-0.148918 0.870242 0
-0.199459 1.18512 0
-0.398918 1.18274 0
-0.148918 0.870242 0
-0.297835 0.865485 0
-0.5 1.5 0
-0.75 1.5 0
-0.398918 1.18274 0
-0.596556 1.17597 0
-0.75 1.5 0
-1 1.5 0
-0.596556 1.17597 0
-0.794194 1.16919 0
-0.398918 1.18274 0
-0.596556 1.17597 0
-0.297835 0.865485 0
-0.443112 0.851937 0
-0.596556 1.17597 0
-0.794194 1.16919 0
-0.443112 0.851937 0
-0.588388 0.838388 0
3.82702e-17 0.875 0
-0.148918 0.870242 0
2.67891e-17 0.5625 0
-0.0988451 0.557719 0
-0.148918 0.870242 0
-0.297835 0.865485 0
-0.0988451 0.557719 0
-0.196753 0.548227 0
2.67891e-17 0.5625 0
-0.0988451 0.557719 0
1.53081e-17 0.25 0
-0.0487726 0.245196 0
-0.0988451 0.557719 0
-0.196753 0.548227 0
-0.0487726 0.245196 0
-0.0956709 0.23097 0
-0.297835 0.865485 0
-0.443112 0.851937 0
-0.196753 0.548227 0
-0.291002 0.529902 0
-0.443112 0.851937 0
-0.588388 0.838388 0
-0.291002 0.529902 0
-0.382583 0.507583 0
-0.196753 0.548227 0
-0.291002 0.529902 0
-0.0956709 0.23097 0
-0.138893 0.207867 0
-0.291002 0.529902 0
-0.382583 0.507583 0
-0.138893 0.207867 0
-0.176777 0.176777 0
-1 1.5 0
-1 1.125 0
-0.794194 1.16919 0
-0.800968 0.877806 0
-1 1.125 0
-1 0.75 0
-0.800968 0.877806 0
-0.807742 0.586418 0
-0.794194 1.16919 0
-0.800968 0.877806 0
-0.588388 0.838388 0
-0.601937 0.630612 0
-0.800968 0.877806 0
-0.807742 0.586418 0
-0.601937 0.630612 0
-0.615485 0.422835 0
-1 0.75 0
-1 0.375 0
-0.807742 0.586418 0
-0.810121 0.293209 0
-1 0.375 0
-1 1.22465e-16 0
-0.810121 0.293209 0
-0.8125 9.95026e-17 0
-0.807742 0.586418 0
-0.810121 0.293209 0
-0.615485 0.422835 0
-0.620242 0.211418 0
-0.810121 0.293209 0
-0.8125 9.95026e-17 0
-0.620242 0.211418 0
-0.625 7.65404e-17 0
-0.588388 0.838388 0
-0.601937 0.630612 0
-0.382583 0.507583 0
-0.404902 0.384752 0
-0.601937 0.630612 0
-0.615485 0.422835 0
-0.404902 0.384752 0
-0.423227 0.259253 0
-0.382583 0.507583 0
-0.404902 0.384752 0
-0.176777 0.176777 0
-0.207867 0.138893 0
-0.404902 0.384752 0
-0.423227 0.259253 0
-0.207867 0.138893 0
-0.23097 0.0956709 0
-0.615485 0.422835 0
-0.620242 0.211418 0
-0.423227 0.259253 0
-0.432719 0.130095 0
-0.620242 0.211418 0
-0.625 7.65404e-17 0
-0.432719 0.130095 0
-0.4375 5.35783e-17 0
-0.423227 0.259253 0
-0.432719 0.130095 0
-0.23097 0.0956709 0
-0.245196 0.0487726 0
-0.432719 0.130095 0
-0.4375 5.35783e-17 0
-0.245196 0.0487726 0
-0.25 3.06162e-17 0
-1 1.22465e-16 0
-1 -0.25 0
-0.8125 9.95026e-17 0
-0.810121 -0.199459 0
-1 -0.25 0
-1 -0.5 0
-0.810121 -0.199459 0
-0.807742 -0.398918 0
-0.8125 9.95026e-17 0
-0.810121 -0.199459 0
-0.625 7.65404e-17 0
-0.620242 -0.148918 0
-0.810121 -0.199459 0
-0.807742 -0.398918 0
-0.620242 -0.148918 0
-0.615485 -0.297835 0
-1 -0.5 0
-1 -0.75 0
-0.807742 -0.398918 0
-0.800968 -0.596556 0
-1 -0.75 0
-1 -1 0
-0.800968 -0.596556 0
-0.794194 -0.794194 0
-0.807742 -0.398918 0
-0.800968 -0.596556 0
-0.615485 -0.297835 0
-0.601937 -0.443112 0
-0.800968 -0.596556 0
-0.794194 -0.794194 0
-0.601937 -0.443112 0
-0.588388 -0.588388 0
-0.625 7.65404e-17 0
-0.620242 -0.148918 0
-0.4375 5.35783e-17 0
-0.432719 -0.0988451 0
-0.620242 -0.148918 0
-0.615485 -0.297835 0
-0.432719 -0.0988451 0
-0.423227 -0.196753 0
-0.4375 5.35783e-17 0
-0.432719 -0.0988451 0
-0.25 3.06162e-17 0
-0.245196 -0.0487726 0
-0.432719 -0.0988451 0
-0.423227 -0.196753 0
-0.245196 -0.0487726 0
-0.23097 -0.0956709 0
-0.615485 -0.297835 0
-0.601937 -0.443112 0
-0.423227 -0.196753 0
-0.404902 -0.291002 0
-0.601937 -0.443112 0
-0.588388 -0.588388 0
-0.404902 -0.291002 0
-0.382583 -0.382583 0
-0.423227 -0.196753 0
-0.404902 -0.291002 0
-0.23097 -0.0956709 0
-0.207867 -0.138893 0
-0.404902 -0.291002 0
-0.382583 -0.382583 0
-0.207867 -0.138893 0
-0.176777 -0.176777 0
-1 -1 0
-0.75 -1 0
-0.794194 -0.794194 0
-0.596556 -0.800968 0
-0.75 -1 0
-0.5 -1 0
-0.596556 -0.800968 0
-0.398918 -0.807742 0
-0.794194 -0.794194 0
-0.596556 -0.800968 0
-0.588388 -0.588388 0
-0.443112 -0.601937 0
-0.596556 -0.800968 0
-0.398918 -0.807742 0
-0.443112 -0.601937 0
-0.297835 -0.615485 0
-0.5 -1 0
-0.25 -1 0
-0.398918 -0.807742 0
-0.199459 -0.810121 0
-0.25 -1 0
-1.83697e-16 -1 0
-0.199459 -0.810121 0
-1.49254e-16 -0.8125 0
-0.398918 -0.807742 0
-0.199459 -0.810121 0
-0.297835 -0.615485 0
-0.148918 -0.620242 0
-0.199459 -0.810121 0
-1.49254e-16 -0.8125 0
-0.148918 -0.620242 0
-1.14811e-16 -0.625 0
-0.588388 -0.588388 0
-0.443112 -0.601937 0
-0.382583 -0.382583 0
-0.291002 -0.404902 0
-0.443112 -0.601937 0
-0.297835 -0.615485 0
-0.291002 -0.404902 0
-0.196753 -0.423227 0
-0.382583 -0.382583 0
-0.291002 -0.404902 0
-0.176777 -0.176777 0
-0.138893 -0.207867 0
-0.291002 -0.404902 0
-0.196753 -0.423227 0
-0.138893 -0.207867 0
-0.0956709 -0.23097 0
-0.297835 -0.615485 0
-0.148918 -0.620242 0
-0.196753 -0.423227 0
-0.0988451 -0.432719 0
-0.148918 -0.620242 0
-1.14811e-16 -0.625 0
-0.0988451 -0.432719 0
-8.03674e-17 -0.4375 0
-0.196753 -0.423227 0
-0.0988451 -0.432719 0
-0.0956709 -0.23097 0
-0.0487726 -0.245196 0
-0.0988451 -0.432719 0
-8.03674e-17 -0.4375 0
-0.0487726 -0.245196 0
-4.59243e-17 -0.25 0
-1.83697e-16 -1 0
0.25 -1 0
-1.49254e-16 -0.8125 0
0.199459 -0.810121 0
0.25 -1 0
0.5 -1 0
0.199459 -0.810121 0
0.398918 -0.807742 0
-1.49254e-16 -0.8125 0
0.199459 -0.810121 0
-1.14811e-16 -0.625 0
0.148918 -0.620242 0
0.199459 -0.810121 0
0.398918 -0.807742 0
0.148918 -0.620242 0
0.297835 -0.615485 0
0.5 -1 0
0.75 -1 0
0.398918 -0.807742 0
0.596556 -0.800968 0
0.75 -1 0
1 -1 0
0.596556 -0.800968 0
0.794194 -0.794194 0
0.398918 -0.807742 0
0.596556 -0.800968 0
0.297835 -0.615485 0
0.443112 -0.601937 0
0.596556 -0.800968 0
0.794194 -0.794194 0
0.443112 -0.601937 0
0.588388 -0.588388 0
-1.14811e-16 -0.625 0
0.148918 -0.620242 0
-8.03674e-17 -0.4375 0
0.0988451 -0.432719 0
0.148918 -0.620242 0
0.297835 -0.615485 0
0.0988451 -0.432719 0
0.196753 -0.423227 0
-8.03674e-17 -0.4375 0
0.0988451 -0.432719 0
-4.59243e-17 -0.25 0
0.0487726 -0.245196 0
0.0988451 -0.432719 0
0.196753 -0.423227 0
0.0487726 -0.245196 0
0.0956709 -0.23097 0
0.297835 -0.615485 0
0.443112 -0.601937 0
0.196753 -0.423227 0
0.291002 -0.404902 0
0.443112 -0.601937 0
0.588388 -0.588388 0
0.291002 -0.404902 0
0.382583 -0.382583 0
0.196753 -0.423227 0
0.291002 -0.404902 0
0.0956709 -0.23097 0
0.138893 -0.207867 0
0.291002 -0.404902 0
0.382583 -0.382583 0
0.138893 -0.207867 0
0.176777 -0.176777 0
1 -1 0
1 -0.75 0
0.794194 -0.794194 0
0.800968 -0.596556 0
1 -0.75 0
1 -0.5 0
0.800968 -0.596556 0
0.807742 -0.398918 0
0.794194 -0.794194 0
0.800968 -0.596556 0
0.588388 -0.588388 0
0.601937 -0.443112 0
0.800968 -0.596556 0
0.807742 -0.398918 0
0.601937 -0.443112 0
0.615485 -0.297835 0
1 -0.5 0
1 -0.25 0
0.807742 -0.398918 0
0.810121 -0.199459 0
1 -0.25 0
1 0 0
0.810121 -0.199459 0
0.8125 0 0
0.807742 -0.398918 0
0.810121 -0.199459 0
0.615485 -0.297835 0
0.620242 -0.148918 0
0.810121 -0.199459 0
0.8125 0 0
0.620242 -0.148918 0
0.625 0 0
0.588388 -0.588388 0
0.601937 -0.443112 0
0.382583 -0.382583 0
0.404902 -0.291002 0
0.601937 -0.443112 0
0.615485 -0.297835 0
0.404902 -0.291002 0
0.423227 -0.196753 0
0.382583 -0.382583 0
0.404902 -0.291002 0
0.176777 -0.176777 0
0.207867 -0.138893 0
0.404902 -0.291002 0
0.423227 -0.196753 0
0.207867 -0.138893 0
0.23097 -0.0956709 0
0.615485 -0.297835 0
0.620242 -0.148918 0
0.423227 -0.196753 0
0.432719 -0.0988451 0
0.620242 -0.148918 0
0.625 0 0
0.432719 -0.0988451 0
0.4375 0 0
0.423227 -0.196753 0
0.432719 -0.0988451 0
0.23097 -0.0956709 0
0.245196 -0.0487726 0
0.432719 -0.0988451 0
0.4375 0 0
0.245196 -0.0487726 0
0.25 0 0
    </DataArray>
  </Points>

  <Cells>
    <DataArray type="Int32" Name="connectivity" format="ascii">
0	1	3	2
4	5	7	6
8	9	11	10
12	13	15	14
16	17	19	18
20	21	23	22
24	25	27	26
28	29	31	30
32	33	35	34
36	37	39	38
40	41	43	42
44	45	47	46
48	49	51	50
52	53	55	54
56	57	59	58
60	61	63	62
64	65	67	66
68	69	71	70
72	73	75	74
76	77	79	78
80	81	83	82
84	85	87	86
88	89	91	90
92	93	95	94
96	97	99	98
100	101	103	102
104	105	107	106
108	109	111	110
112	113	115	114
116	117	119	118
120	121	123	122
124	125	127	126
128	129	131	130
132	133	135	134
136	137	139	138
140	141	143	142
144	145	147	146
148	149	151	150
152	153	155	154
156	157	159	158
160	161	163	162
164	165	167	166
168	169	171	170
172	173	175	174
176	177	179	178
180	181	183	182
184	185	187	186
188	189	191	190
192	193	195	194
196	197	199	198
200	201	203	202
204	205	207	206
208	209	211	210
212	213	215	214
216	217	219	218
220	221	223	222
224	225	227	226
228	229	231	230
232	233	235	234
236	237	239	238
240	241	243	242
244	245	247	246
248	249	251	250
252	253	255	254
256	257	259	258
260	261	263	262
264	265	267	266
268	269	271	270
272	273	275	274
276	277	279	278
280	281	283	282
284	285	287	286
288	289	291	290
292	293	295	294
296	297	299	298
300	301	303	302
304	305	307	306
308	309	311	310
312	313	315	314
316	317	319	318
320	321	323	322
324	325	327	326
328	329	331	330
332	333	335	334
336	337	339	338
340	341	343	342
344	345	347	346
348	349	351	350
352	353	355	354
356	357	359	358
360	361	363	362
364	365	367	366
368	369	371	370
372	373	375	374
376	377	379	378
380	381	383	382
384	385	387	386
388	389	391	390
392	393	395	394
396	397	399	398
400	401	403	402
404	405	407	406
408	409	411	410
412	413	415	414
416	417	419	418
420	421	423	422
424	425	427	426
428	429	431	430
432	433	435	434
436	437	439	438
440	441	443	442
444	445	447	446
448	449	451	450
452	453	455	454
456	457	459	458
460	461	463	462
464	465	467	466
468	469	471	470
472	473	475	474
476	477	479	478
480	481	483	482
484	485	487	486
488	489	491	490
492	493	495	494
496	497	499	498
500	501	503	502
504	505	507	506
508	509	511	510
    </DataArray>
    <DataArray type="Int32" Name="offsets" format="ascii">
4 8 12 16 20 24 28 32 36 40 44 48 52 56 60 64 68 72 76 80 84 88 92 96 100 104 108 112 116 120 124 128 132 136 140 144 148 152 156 160 164 168 172 176 180 184 188 192 196 200 204 208 212 216 220 224 228 232 236 240 244 248 252 256 260 264 268 272 276 280 284 288 292 296 300 304 308 312 316 320 324 328 332 336 340 344 348 352 356 360 364 368 372 376 380 384 388 392 396 400 404 408 412 416 420 424 428 432 436 440 444 448 452 456 460 464 468 472 476 480 484 488 492 496 500 504 508 512 
    </DataArray>
    <DataArray type="UInt8" Name="types" format="ascii">
9 9 9 9 9 9 9 9 9 9 9 9 9 9 9 9 9 9 9 9 9 9 9 9 9 9 9 9 9 9 9 9 9 9 9 9 9 9 9 9 9 9 9 9 9 9 9 9 9 9 9 9 9 9 9 9 9 9 9 9 9 9 9 9 9 9 9 9 9 9 9 9 9 9 9 9 9 9 9 9 9 9 9 9 9 9 9 9 9 9 9 9 9 9 9 9 9 9 9 9 9 9 9 9 9 9 9 9 9 9 9 9 9 9 9 9 9 9 9 9 9 9 9 9 9 9 9 9 
    </DataArray>
  </Cells>
  <PointData Scalars="scalars">
    <DataArray type="Float32" Name="level" format="ascii">
2 2 2 2 2 2 2 2 2 2 2 2 2 2 2 2 2 2 2 2 2 2 2 2 2 2 2 2 2 2 2 2 2 2 2 2 2 2 2 2 2 2 2 2 2 2 2 2 2 2 2 2 2 2 2 2 2 2 2 2 2 2 2 2 2 2 2 2 2 2 2 2 2 2 2 2 2 2 2 2 2 2 2 2 2 2 2 2 2 2 2 2 2 2 2 2 2 2 2 2 2 2 2 2 2 2 2 2 2 2 2 2 2 2 2 2 2 2 2 2 2 2 2 2 2 2 2 2 2 2 2 2 2 2 2 2 2 2 2 2 2 2 2 2 2 2 2 2 2 2 2 2 2 2 2 2 2 2 2 2 2 2 2 2 2 2 2 2 2 2 2 2 2 2 2 2 2 2 2 2 2 2 2 2 2 2 2 2 2 2 2 2 2 2 2 2 2 2 2 2 2 2 2 2 2 2 2 2 2 2 2 2 2 2 2 2 2 2 2 2 2 2 2 2 2 2 2 2 2 2 2 2 2 2 2 2 2 2 2 2 2 2 2 2 2 2 2 2 2 2 2 2 2 2 2 2 2 2 2 2 2 2 2 2 2 2 2 2 2 2 2 2 2 2 2 2 2 2 2 2 2 2 2 2 2 2 2 2 2 2 2 2 2 2 2 2 2 2 2 2 2 2 2 2 2 2 2 2 2 2 2 2 2 2 2 2 2 2 2 2 2 2 2 2 2 2 2 2 2 2 2 2 2 2 2 2 2 2 2 2 2 2 2 2 2 2 2 2 2 2 2 2 2 2 2 2 2 2 2 2 2 2 2 2 2 2 2 2 2 2 2 2 2 2 2 2 2 2 2 2 2 2 2 2 2 2 2 2 2 2 2 2 2 2 2 2 2 2 2 2 2 2 2 2 2 2 2 2 2 2 2 2 2 2 2 2 2 2 2 2 2 2 2 2 2 2 2 2 2 2 2 2 2 2 2 2 2 2 2 2 2 2 2 2 2 2 2 2 2 2 2 2 2 2 2 2 2 2 2 2 2 2 2 2 2 2 2 2 2 2 2 2 2 2 2 2 2 2 2 2 2 2 2 2 2 2 2 2 2 2 2 2 2 2 2 2 2 2 2 2 2 2 2 2 2 2 2 2 2 2 2 2     </DataArray>
    <DataArray type="Float32" Name="manifold" format="ascii">
-1 -1 -1 -1 -1 -1 -1 -1 -1 -1 -1 -1 -1 -1 -1 -1 -1 -1 -1 -1 -1 -1 -1 -1 -1 -1 -1 -1 -1 -1 -1 -1 -1 -1 -1 -1 -1 -1 -1 -1 -1 -1 -1 -1 -1 -1 -1 -1 -1 -1 -1 -1 -1 -1 -1 -1 -1 -1 -1 -1 -1 -1 -1 -1 -1 -1 -1 -1 -1 -1 -1 -1 -1 -1 -1 -1 -1 -1 -1 -1 -1 -1 -1 -1 -1 -1 -1 -1 -1 -1 -1 -1 -1 -1 -1 -1 -1 -1 -1 -1 -1 -1 -1 -1 -1 -1 -1 -1 -1 -1 -1 -1 -1 -1 -1 -1 -1 -1 -1 -1 -1 -1 -1 -1 -1 -1 -1 -1 -1 -1 -1 -1 -1 -1 -1 -1 -1 -1 -1 -1 -1 -1 -1 -1 -1 -1 -1 -1 -1 -1 -1 -1 -1 -1 -1 -1 -1 -1 -1 -1 -1 -1 -1 -1 -1 -1 -1 -1 -1 -1 -1 -1 -1 -1 -1 -1 -1 -1 -1 -1 -1 -1 -1 -1 -1 -1 -1 -1 -1 -1 -1 -1 -1 -1 -1 -1 -1 -1 -1 -1 -1 -1 -1 -1 -1 -1 -1 -1 -1 -1 -1 -1 -1 -1 -1 -1 -1 -1 -1 -1 -1 -1 -1 -1 -1 -1 -1 -1 -1 -1 -1 -1 -1 -1 -1 -1 -1 -1 -1 -1 -1 -1 -1 -1 -1 -1 -1 -1 -1 -1 -1 -1 -1 -1 -1 -1 -1 -1 -1 -1 -1 -1 -1 -1 -1 -1 -1 -1 -1 -1 -1 -1 -1 -1 -1 -1 -1 -1 -1 -1 -1 -1 -1 -1 -1 -1 -1 -1 -1 -1 -1 -1 -1 -1 -1 -1 -1 -1 -1 -1 -1 -1 -1 -1 -1 -1 -1 -1 -1 -1 -1 -1 -1 -1 -1 -1 -1 -1 -1 -1 -1 -1 -1 -1 -1 -1 -1 -1 -1 -1 -1 -1 -1 -1 -1 -1 -1 -1 -1 -1 -1 -1 -1 -1 -1 -1 -1 -1 -1 -1 -1 -1 -1 -1 -1 -1 -1 -1 -1 -1 -1 -1 -1 -1 -1 -1 -1 -1 -1 -1 -1 -1 -1 -1 -1 -1 -1 -1 -1 -1 -1 -1 -1 -1 -1 -1 -1 -1 -1 -1 -1 -1 -1 -1 -1 -1 -1 -1 -1 -1 -1 -1 -1 -1 -1 -1 -1 -1 -1 -1 -1 -1 -1 -1 -1 -1 -1 -1 -1 -1 -1 -1 -1 -1 -1 -1 -1 -1 -1 -1 -1 -1 -1 -1 -1 -1 -1 -1 -1 -1 -1 -1 -1 -1 -1 -1 -1 -1 -1 -1 -1 -1 -1 -1 -1 -1 -1 -1 -1 -1 -1 -1 -1 -1 -1 -1 -1 -1 -1 -1 -1 -1 -1 -1 -1 -1 -1 -1 -1 -1 -1 -1 -1 -1 -1 -1 -1 -1 -1 -1 -1 -1 -1 -1 -1 -1 -1 -1 -1 -1 -1 -1 -1 -1 -1 -1 -1 -1 -1 -1 -1 -1     </DataArray>
    <DataArray type="Float32" Name="material" format="ascii">
0 0 0 0 0 0 0 0 0 0 0 0 0 0 0 0 0 0 0 0 0 0 0 0 0 0 0 0 0 0 0 0 0 0 0 0 0 0 0 0 0 0 0 0 0 0 0 0 0 0 0 0 0 0 0 0 0 0 0 0 0 0 0 0 0 0 0 0 0 0 0 0 0 0 0 0 0 0 0 0 0 0 0 0 0 0 0 0 0 0 0 0 0 0 0 0 0 0 0 0 0 0 0 0 0 0 0 0 0 0 0 0 0 0 0 0 0 0 0 0 0 0 0 0 0 0 0 0 0 0 0 0 0 0 0 0 0 0 0 0 0 0 0 0 0 0 0 0 0 0 0 0 0 0 0 0 0 0 0 0 0 0 0 0 0 0 0 0 0 0 0 0 0 0 0 0 0 0 0 0 0 0 0 0 0 0 0 0 0 0 0 0 0 0 0 0 0 0 0 0 0 0 0 0 0 0 0 0 0 0 0 0 0 0 0 0 0 0 0 0 0 0 0 0 0 0 0 0 0 0 0 0 0 0 0 0 0 0 0 0 0 0 0 0 0 0 0 0 0 0 0 0 0 0 0 0 0 0 0 0 0 0 0 0 0 0 0 0 0 0 0 0 0 0 0 0 0 0 0 0 0 0 0 0 0 0 0 0 0 0 0 0 0 0 0 0 0 0 0 0 0 0 0 0 0 0 0 0 0 0 0 0 0 0 0 0 0 0 0 0 0 0 0 0 0 0 0 0 0 0 0 0 0 0 0 0 0 0 0 0 0 0 0 0 0 0 0 0 0 0 0 0 0 0 0 0 0 0 0 0 0 0 0 0 0 0 0 0 0 0 0 0 0 0 0 0 0 0 0 0 0 0 0 0 0 0 0 0 0 0 0 0 0 0 0 0 0 0 0 0 0 0 0 0 0 0 0 0 0 0 0 0 0 0 0 0 0 0 0 0 0 0 0 0 0 0 0 0 0 0 0 0 0 0 0 0 0 0 0 0 0 0 0 0 0 0 0 0 0 0 0 0 0 0 0 0 0 0 0 0 0 0 0 0 0 0 0 0 0 0 0 0 0 0 0 0 0 0 0 0 0 0 0 0 0 0 0 0 0 0 0 0 0 0 0 0 0 0 0 0 0 0 0 0 0 0 0 0 0 0 0 0     </DataArray>
    <DataArray type="Float32" Name="subdomain" format="ascii">
0 0 0 0 0 0 0 0 0 0 0 0 0 0 0 0 0 0 0 0 0 0 0 0 0 0 0 0 0 0 0 0 0 0 0 0 0 0 0 0 0 0 0 0 0 0 0 0 0 0 0 0 0 0 0 0 0 0 0 0 0 0 0 0 0 0 0 0 0 0 0 0 0 0 0 0 0 0 0 0 0 0 0 0 0 0 0 0 0 0 0 0 0 0 0 0 0 0 0 0 0 0 0 0 0 0 0 0 0 0 0 0 0 0 0 0 0 0 0 0 0 0 0 0 0 0 0 0 0 0 0 0 0 0 0 0 0 0 0 0 0 0 0 0 0 0 0 0 0 0 0 0 0 0 0 0 0 0 0 0 0 0 0 0 0 0 0 0 0 0 0 0 0 0 0 0 0 0 0 0 0 0 0 0 0 0 0 0 0 0 0 0 0 0 0 0 0 0 0 0 0 0 0 0 0 0 0 0 0 0 0 0 0 0 0 0 0 0 0 0 0 0 0 0 0 0 0 0 0 0 0 0 0 0 0 0 0 0 0 0 0 0 0 0 0 0 0 0 0 0 0 0 0 0 0 0 0 0 0 0 0 0 0 0 0 0 0 0 0 0 0 0 0 0 0 0 0 0 0 0 0 0 0 0 0 0 0 0 0 0 0 0 0 0 0 0 0 0 0 0 0 0 0 0 0 0 0 0 0 0 0 0 0 0 0 0 0 0 0 0 0 0 0 0 0 0 0 0 0 0 0 0 0 0 0 0 0 0 0 0 0 0 0 0 0 0 0 0 0 0 0 0 0 0 0 0 0 0 0 0 0 0 0 0 0 0 0 0 0 0 0 0 0 0 0 0 0 0 0 0 0 0 0 0 0 0 0 0 0 0 0 0 0 0 0 0 0 0 0 0 0 0 0 0 0 0 0 0 0 0 0 0 0 0 0 0 0 0 0 0 0 0 0 0 0 0 0 0 0 0 0 0 0 0 0 0 0 0 0 0 0 0 0 0 0 0 0 0 0 0 0 0 0 0 0 0 0 0 0 0 0 0 0 0 0 0 0 0 0 0 0 0 0 0 0 0 0 0 0 0 0 0 0 0 0 0 0 0 0 0 0 0 0 0 0 0 0 0 0 0 0 0 0 0 0 0 0 0 0 0 0 0     </DataArray>
    <DataArray type="Float32" Name="level_subdomain" format="ascii">
0 0 0 0 0 0 0 0 0 0 0 0 0 0 0 0 0 0 0 0 0 0 0 0 0 0 0 0 0 0 0 0 0 0 0 0 0 0 0 0 0 0 0 0 0 0 0 0 0 0 0 0 0 0 0 0 0 0 0 0 0 0 0 0 0 0 0 0 0 0 0 0 0 0 0 0 0 0 0 0 0 0 0 0 0 0 0 0 0 0 0 0 0 0 0 0 0 0 0 0 0 0 0 0 0 0 0 0 0 0 0 0 0 0 0 0 0 0 0 0 0 0 0 0 0 0 0 0 0 0 0 0 0 0 0 0 0 0 0 0 0 0 0 0 0 0 0 0 0 0 0 0 0 0 0 0 0 0 0 0 0 0 0 0 0 0 0 0 0 0 0 0 0 0 0 0 0 0 0 0 0 0 0 0 0 0 0 0 0 0 0 0 0 0 0 0 0 0 0 0 0 0 0 0 0 0 0 0 0 0 0 0 0 0 0 0 0 0 0 0 0 0 0 0 0 0 0 0 0 0 0 0 0 0 0 0 0 0 0 0 0 0 0 0 0 0 0 0 0 0 0 0 0 0 0 0 0 0 0 0 0 0 0 0 0 0 0 0 0 0 0 0 0 0 0 0 0 0 0 0 0 0 0 0 0 0 0 0 0 0 0 0 0 0 0 0 0 0 0 0 0 0 0 0 0 0 0 0 0 0 0 0 0 0 0 0 0 0 0 0 0 0 0 0 0 0 0 0 0 0 0 0 0 0 0 0 0 0 0 0 0 0 0 0 0 0 0 0 0 0 0 0 0 0 0 0 0 0 0 0 0 0 0 0 0 0 0 0 0 0 0 0 0 0 0 0 0 0 0 0 0 0 0 0 0 0 0 0 0 0 0 0 0 0 0 0 0 0 0 0 0 0 0 0 0 0 0 0 0 0 0 0 0 0 0 0 0 0 0 0 0 0 0 0 0 0 0 0 0 0 0 0 0 0 0 0 0 0 0 0 0 0 0 0 0 0 0 0 0 0 0 0 0 0 0 0 0 0 0 0 0 0 0 0 0 0 0 0 0 0 0 0 0 0 0 0 0 0 0 0 0 0 0 0 0 0 0 0 0 0 0 0 0 0 0 0 0 0 0 0 0 0 0 0 0 0 0 0 0 0 0 0     </DataArray>
  </PointData>
 </Piece>
 </UnstructuredGrid>
</VTKFile>
