<?xml version="1.0" ?> 
<!-- 
# vtk DataFile Version 3.0
#This file was generated by the deal.II library on 12:09:00 at 2021/9/3
-->
<VTKFile type="UnstructuredGrid" version="0.1" byte_order="LittleEndian">
<UnstructuredGrid>
<Piece NumberOfPoints="32" NumberOfCells="8" >
  <Points>
    <DataArray type="Float32" NumberOfComponents="3" format="ascii">
1 0 0
1 1.5 0
0.25 0 0
0.176777 0.176777 0
1 1.5 0
6.12323e-17 1.5 0
0.176777 0.176777 0
1.53081e-17 0.25 0
6.12323e-17 1.5 0
-1 1.5 0
1.53081e-17 0.25 0
-0.176777 0.176777 0
-1 1.5 0
-1 1.22465e-16 0
-0.176777 0.176777 0
-0.25 3.06162e-17 0
-1 1.22465e-16 0
-1 -1 0
-0.25 3.06162e-17 0
-0.176777 -0.176777 0
-1 -1 0
-1.83697e-16 -1 0
-0.176777 -0.176777 0
-4.59243e-17 -0.25 0
-1.83697e-16 -1 0
1 -1 0
-4.59243e-17 -0.25 0
0.176777 -0.176777 0
1 -1 0
1 0 0
0.176777 -0.176777 0
0.25 0 0
    </DataArray>
  </Points>

  <Cells>
    <DataArray type="Int32" Name="connectivity" format="ascii">
0	1	3	2
4	5	7	6
8	9	11	10
12	13	15	14
16	17	19	18
20	21	23	22
24	25	27	26
28	29	31	30
    </DataArray>
    <DataArray type="Int32" Name="offsets" format="ascii">
4 8 12 16 20 24 28 32 
    </DataArray>
    <DataArray type="UInt8" Name="types" format="ascii">
9 9 9 9 9 9 9 9 
    </DataArray>
  </Cells>
  <PointData Scalars="scalars">
    <DataArray type="Float32" Name="level" format="ascii">
0 0 0 0 0 0 0 0 0 0 0 0 0 0 0 0 0 0 0 0 0 0 0 0 0 0 0 0 0 0 0 0     </DataArray>
    <DataArray type="Float32" Name="manifold" format="ascii">
-1 -1 -1 -1 -1 -1 -1 -1 -1 -1 -1 -1 -1 -1 -1 -1 -1 -1 -1 -1 -1 -1 -1 -1 -1 -1 -1 -1 -1 -1 -1 -1     </DataArray>
    <DataArray type="Float32" Name="material" format="ascii">
0 0 0 0 0 0 0 0 0 0 0 0 0 0 0 0 0 0 0 0 0 0 0 0 0 0 0 0 0 0 0 0     </DataArray>
    <DataArray type="Float32" Name="subdomain" format="ascii">
0 0 0 0 0 0 0 0 0 0 0 0 0 0 0 0 0 0 0 0 0 0 0 0 0 0 0 0 0 0 0 0     </DataArray>
    <DataArray type="Float32" Name="level_subdomain" format="ascii">
0 0 0 0 0 0 0 0 0 0 0 0 0 0 0 0 0 0 0 0 0 0 0 0 0 0 0 0 0 0 0 0     </DataArray>
  </PointData>
 </Piece>
 </UnstructuredGrid>
</VTKFile>
